 Gaussian 09, Revision D.01,
 Gaussian 09:  EM64L-G09RevD.01 24-Apr-2013

 ------------------------------------------
 # pw91pw91/6-311++G(3df,3pd)/auto opt freq
 ------------------------------------------

 -------------------
 Title Card Required
 -------------------
 Symbolic Z-matrix:
 Charge =  0 Multiplicity = 1

 SCF Done:  E(RPW91-PW91) =  -3027.84770841     A.U. after   15 cycles
 SCF Done:  E(RPW91-PW91) =  -3027.84738333     A.U. after   12 cycles
 SCF Done:  E(RPW91-PW91) =  -3027.84768852     A.U. after   12 cycles
 SCF Done:  E(RPW91-PW91) =  -3027.84780166     A.U. after   11 cycles
 SCF Done:  E(RPW91-PW91) =  -3027.84782796     A.U. after   11 cycles
 SCF Done:  E(RPW91-PW91) =  -3027.84786219     A.U. after   12 cycles
 SCF Done:  E(RPW91-PW91) =  -3027.84789888     A.U. after   12 cycles
 SCF Done:  E(RPW91-PW91) =  -3027.84793505     A.U. after   12 cycles
 SCF Done:  E(RPW91-PW91) =  -3027.84802538     A.U. after   12 cycles
 SCF Done:  E(RPW91-PW91) =  -3027.84807090     A.U. after   12 cycles
 SCF Done:  E(RPW91-PW91) =  -3027.84886799     A.U. after    7 cycles
 SCF Done:  E(RPW91-PW91) =  -3027.84886983     A.U. after    7 cycles
 SCF Done:  E(RPW91-PW91) =  -3027.84887055     A.U. after    6 cycles
 SCF Done:  E(RPW91-PW91) =  -3027.84887109     A.U. after    6 cycles
 SCF Done:  E(RPW91-PW91) =  -3027.84887136     A.U. after    6 cycles
 SCF Done:  E(RPW91-PW91) =  -3027.84887138     A.U. after    6 cycles
 SCF Done:  E(RPW91-PW91) =  -3027.84887153     A.U. after    6 cycles
 SCF Done:  E(RPW91-PW91) =  -3027.84887173     A.U. after    6 cycles
 SCF Done:  E(RPW91-PW91) =  -3027.84887200     A.U. after    6 cycles
 Optimization completed.
    -- Stationary point found.
 Normal termination of Gaussian 09 at Sun Mar 13 15:31:14 2016.

 ----------------------------------------------------------------------
 #N Geom=AllCheck Guess=TCheck SCRF=Check GenChk RPW91PW91/6-311++G(3df
 ,3pd)/Auto Freq
 ----------------------------------------------------------------------

 Structure from the checkpoint file:  "/home/user/Documents/Gau-25001.chk"
 -------------------
 Title Card Required
 -------------------
 Charge =  0 Multiplicity = 1

                         Standard orientation:
 ---------------------------------------------------------------------
 Center     Atomic      Atomic             Coordinates (Angstroms)
 Number     Number       Type             X           Y           Z
 ---------------------------------------------------------------------
      1         16           0        3.911372    1.430200   -0.425587
      2          8           0        5.088609    2.458453   -0.853432
      3          8           0        2.833566    1.569817   -1.414914
      4          8           0        4.606630    0.134269   -0.485661
      5          8           0        3.509666    1.825532    0.937891
      6          1           0       -0.281169   -1.537457    1.426963
      7          1           0        2.256230    0.244062    3.521165
      8         16           0       -1.585131    0.489418    2.470728
      9          8           0       -1.659508   -0.795331    1.688183
     10          8           0       -0.460409    1.320596    1.916286
     11          8           0       -2.922849    1.257692    2.167671
     12          8           0       -1.498314    0.316773    3.899134
     13          1           0        4.739517    3.364600   -0.768251
     14         16           0       -3.440195    1.015803   -1.646559
     15          8           0       -4.748876    1.495239   -2.473735
     16          8           0       -2.410095    2.037218   -1.876504
     17          8           0       -3.865747    0.910351   -0.234229
     18          8           0       -3.153084   -0.293870   -2.247841
     19          1           0       -4.944279    2.413202   -2.210196
     20          1           0        4.002562   -2.223811   -2.635159
     21          1           0       -3.202524    1.169016    1.196160
     22          7           0        3.400650   -1.760871   -1.953723
     23          1           0        2.607952   -1.308697   -2.421690
     24          1           0        3.935463   -1.013265   -1.413082
     25          1           0        0.959530    1.644514   -1.097110
     26         16           0        0.658339   -2.606958   -0.232776
     27          8           0        0.594179   -1.487334   -1.203455
     28          8           0        1.958440   -3.294946   -0.273975
     29          8           0        0.641473   -1.941271    1.241660
     30          8           0       -0.506655   -3.494395   -0.303185
     31          1           0       -3.086893   -1.531059   -1.128126
     32          1           0        2.960453   -2.459168   -1.278383
     33          7           0       -2.952838   -2.200589   -0.317596
     34          1           0       -3.777084   -2.788918   -0.195009
     35          1           0       -2.781352   -1.626838    0.535552
     36          1           0       -2.088614   -2.784266   -0.449120
     37          7           0        0.047379    1.227077   -0.841537
     38          1           0       -0.764239    1.617186   -1.371474
     39          1           0       -0.141077    1.359849    0.179877
     40          1           0        0.127555    0.200495   -1.016063
     41          7           0        1.962448    0.292614    2.544973
     42          1           0        1.016560    0.772352    2.458368
     43          1           0        1.832358   -0.658595    2.158028
     44          1           0        2.659222    0.833428    1.958688
 ---------------------------------------------------------------------

 SCF Done:  E(RPW91-PW91) =  -3027.84887200     A.U. after    1 cycles

 The electronic state is 1-A.
 Alpha  occ. eigenvalues --  -88.29544 -88.29064 -88.28514 -88.28487 -18.81820
 Alpha  occ. eigenvalues --  -18.80855 -18.80350 -18.79281 -18.77216 -18.77077
 Alpha  occ. eigenvalues --  -18.76773 -18.76766 -18.76686 -18.76536 -18.76485
 Alpha  occ. eigenvalues --  -18.76398 -18.76068 -18.76014 -18.75819 -18.74772
 Alpha  occ. eigenvalues --  -14.09582 -14.09148 -14.08032 -14.06404  -7.86447
 Alpha  occ. eigenvalues --   -7.85945  -7.85414  -7.85364  -5.89116  -5.88880
 Alpha  occ. eigenvalues --   -5.88854  -5.88614  -5.88390  -5.88348  -5.88084
 Alpha  occ. eigenvalues --   -5.87999  -5.87864  -5.87845  -5.87821  -5.87743
 Alpha  occ. eigenvalues --   -1.08342  -1.07650  -1.07346  -1.07054  -0.96419
 Alpha  occ. eigenvalues --   -0.95474  -0.95147  -0.94458  -0.93611  -0.93159
 Alpha  occ. eigenvalues --   -0.93032  -0.92477  -0.92358  -0.91988  -0.91917
 Alpha  occ. eigenvalues --   -0.91858  -0.90279  -0.89805  -0.88865  -0.87534
 Alpha  occ. eigenvalues --   -0.60423  -0.60113  -0.59380  -0.58150  -0.53519
 Alpha  occ. eigenvalues --   -0.53206  -0.52938  -0.52667  -0.52248  -0.52072
 Alpha  occ. eigenvalues --   -0.51735  -0.51455  -0.51191  -0.50955  -0.50568
 Alpha  occ. eigenvalues --   -0.50173  -0.48897  -0.48557  -0.47826  -0.47306
 Alpha  occ. eigenvalues --   -0.45047  -0.44682  -0.44417  -0.43944  -0.43701
 Alpha  occ. eigenvalues --   -0.43577  -0.43279  -0.42686  -0.40441  -0.39636
 Alpha  occ. eigenvalues --   -0.39411  -0.38036  -0.34792  -0.34560  -0.33883
 Alpha  occ. eigenvalues --   -0.33774  -0.33687  -0.33449  -0.33226  -0.33069
 Alpha  occ. eigenvalues --   -0.32713  -0.32567  -0.32440  -0.32240  -0.32168
 Alpha  occ. eigenvalues --   -0.31928  -0.31724  -0.31564  -0.28988  -0.28463
 Alpha  occ. eigenvalues --   -0.27848  -0.27255  -0.27141  -0.26714  -0.26294
 Alpha  occ. eigenvalues --   -0.26109  -0.25844  -0.25575  -0.24726  -0.24643
 Alpha virt. eigenvalues --   -0.06141  -0.04549  -0.04147  -0.03444  -0.02599
 Alpha virt. eigenvalues --   -0.01140  -0.00096   0.00179   0.00613   0.01167
 Alpha virt. eigenvalues --    0.01979   0.02141   0.02438   0.03017   0.03211

 Mulliken charges:
               1
     1  S    0.567510
     2  O   -0.655785
     3  O   -0.397576
     4  O   -0.538102
     5  O   -0.533282
     6  H    0.765264
     7  H    0.332240
     8  S    0.481635
     9  O   -0.679519
    10  O   -0.553146
    11  O   -0.718424
    12  O   -0.453648
    13  H    0.521564
    14  S    0.555309
    15  O   -0.683563
    16  O   -0.440626
    17  O   -0.574774
    18  O   -0.500913
    19  H    0.515540
    20  H    0.352105
    21  H    0.931491
    22  N   -1.111935
    23  H    0.532053
    24  H    0.628697
    25  H    0.431796
    26  S    0.489508
    27  O   -0.473997
    28  O   -0.563572
    29  O   -0.540676
    30  O   -0.544699
    31  H    0.628156
    32  H    0.604255
    33  N   -1.118762
    34  H    0.331756
    35  H    0.662082
    36  H    0.559271
    37  N   -1.205435
    38  H    0.486746
    39  H    0.604367
    40  H    0.648573
    41  N   -1.106300
    42  H    0.626317
    43  H    0.546757
    44  H    0.591743
 Sum of Mulliken charges =   0.00000

 Dipole moment (field-independent basis, Debye):
    X=              3.6997    Y=             -1.1839    Z=             -2.7668  Tot=              4.7691
 Quadrupole moment (field-independent basis, Debye-Ang):
   XX=           -163.8318   YY=           -168.3435   ZZ=           -178.0037
   XY=              4.4243   XZ=              0.5741   YZ=              3.1435

  Exact polarizability: 235.405   0.002 205.959  -0.845   1.982 205.628
 Approx polarizability: 355.888  -0.689 347.526  -0.376   1.156 349.934

                      1                      2                      3
                      A                      A                      A
 Frequencies --     24.3700                29.1109                37.5844
 Red. masses --     12.1058                10.4821                10.0358
 Frc consts  --      0.0042                 0.0052                 0.0084
 IR Inten    --      2.0644                 1.7296                 3.1159

                      4                      5                      6
                      A                      A                      A
 Frequencies --     41.1606                45.1780                46.8782
 Red. masses --      9.9075                10.6291                 8.1850
 Frc consts  --      0.0099                 0.0128                 0.0106
 IR Inten    --      0.5075                 2.6810                 2.7436

                      7                      8                      9
                      A                      A                      A
 Frequencies --     52.0308                56.4640                58.1290
 Red. masses --      9.1638                 8.7000                 8.5995
 Frc consts  --      0.0146                 0.0163                 0.0171
 IR Inten    --      3.9319                 1.9666                 2.2818

                     10                     11                     12
                      A                      A                      A
 Frequencies --     65.2785                68.8476                72.5774
 Red. masses --      7.8457                 8.7919                 7.9194
 Frc consts  --      0.0197                 0.0246                 0.0246
 IR Inten    --      0.8830                 0.8699                 4.3216

                     13                     14                     15
                      A                      A                      A
 Frequencies --     79.9634                86.4578                97.1108
 Red. masses --      9.9718                 8.9642                 6.0961
 Frc consts  --      0.0376                 0.0395                 0.0339
 IR Inten    --      1.8088                11.2091                 9.4833

                     16                     17                     18
                      A                      A                      A
 Frequencies --    103.4240               120.2224               120.5048
 Red. masses --      3.4415                 3.9374                 5.3029
 Frc consts  --      0.0217                 0.0335                 0.0454
 IR Inten    --     10.6947                 5.8856                 6.3139

                     19                     20                     21
                      A                      A                      A
 Frequencies --    145.5100               164.2514               167.0749
 Red. masses --      6.0382                 1.2932                 1.7240
 Frc consts  --      0.0753                 0.0206                 0.0284
 IR Inten    --      0.9919                24.1203                30.1689

                     22                     23                     24
                      A                      A                      A
 Frequencies --    175.8143               183.2487               196.5895
 Red. masses --      2.2357                 4.5305                 4.9871
 Frc consts  --      0.0407                 0.0896                 0.1136
 IR Inten    --     25.2417                45.7921                16.2589

                     25                     26                     27
                      A                      A                      A
 Frequencies --    209.8818               214.1876               225.3714
 Red. masses --      4.1023                 3.6781                 3.5178
 Frc consts  --      0.1065                 0.0994                 0.1053
 IR Inten    --      4.3454                 6.9120               128.8115

                     28                     29                     30
                      A                      A                      A
 Frequencies --    232.1910               245.8341               257.0206
 Red. masses --      4.8395                 4.7143                 4.2380
 Frc consts  --      0.1537                 0.1679                 0.1649
 IR Inten    --     41.1267                65.0727                50.4890

                     31                     32                     33
                      A                      A                      A
 Frequencies --    277.5289               282.1325               293.6820
 Red. masses --      4.5328                 3.3944                 1.6134
 Frc consts  --      0.2057                 0.1592                 0.0820
 IR Inten    --    199.5243               218.0793                57.8609

                     34                     35                     36
                      A                      A                      A
 Frequencies --    329.7913               356.5601               383.2156
 Red. masses --      1.1371                 1.1217                 7.5378
 Frc consts  --      0.0729                 0.0840                 0.6522
 IR Inten    --      6.1644                 1.4436                 0.3056

                     37                     38                     39
                      A                      A                      A
 Frequencies --    385.6454               391.1432               396.1668
 Red. masses --      7.6069                 7.5082                 7.8454
 Frc consts  --      0.6666                 0.6768                 0.7255
 IR Inten    --     10.9222                17.4848                 7.2708

                     40                     41                     42
                      A                      A                      A
 Frequencies --    400.9862               413.0829               420.3936
 Red. masses --      1.9715                 1.6335                 2.6285
 Frc consts  --      0.1868                 0.1642                 0.2737
 IR Inten    --     16.7476                12.7490                26.0093

                     43                     44                     45
                      A                      A                      A
 Frequencies --    424.5453               426.2708               436.7809
 Red. masses --      1.4073                 1.8548                 2.0808
 Frc consts  --      0.1494                 0.1986                 0.2339
 IR Inten    --     30.7717                 5.5062                15.9869

                     46                     47                     48
                      A                      A                      A
 Frequencies --    439.4782               448.2389               485.9520
 Red. masses --      2.2519                 1.9124                 1.0907
 Frc consts  --      0.2563                 0.2264                 0.1518
 IR Inten    --     34.3218                28.5938                 2.5189

                     49                     50                     51
                      A                      A                      A
 Frequencies --    497.9198               511.6795               520.1680
 Red. masses --      1.2022                 1.8180                 1.2595
 Frc consts  --      0.1756                 0.2804                 0.2008
 IR Inten    --      3.7436                22.1205                51.3451

                     52                     53                     54
                      A                      A                      A
 Frequencies --    526.3026               533.7179               539.6476
 Red. masses --      2.5023                 2.9614                 4.4238
 Frc consts  --      0.4084                 0.4970                 0.7590
 IR Inten    --     20.4553                 2.4179                 6.4354

                     55                     56                     57
                      A                      A                      A
 Frequencies --    544.4854               548.4089               551.3098
 Red. masses --     11.0375                10.6724                 5.5117
 Frc consts  --      1.9279                 1.8911                 0.9870
 IR Inten    --     61.0222                 7.7161                68.8713

                     58                     59                     60
                      A                      A                      A
 Frequencies --    556.7898               560.5626               566.0009
 Red. masses --      3.5751                 9.5701                 3.7264
 Frc consts  --      0.6530                 1.7718                 0.7034
 IR Inten    --      6.2710                 2.7733                 4.5458

                     61                     62                     63
                      A                      A                      A
 Frequencies --    569.9008               573.7599               578.8795
 Red. masses --      8.7030                 7.2629                 9.4626
 Frc consts  --      1.6654                 1.4087                 1.8683
 IR Inten    --     47.9353                51.5606                13.3160

                     64                     65                     66
                      A                      A                      A
 Frequencies --    586.0414               778.6194               780.1222
 Red. masses --      2.8810                16.5838                17.0140
 Frc consts  --      0.5830                 5.9236                 6.1007
 IR Inten    --     53.4616               260.5067               169.2002

                     67                     68                     69
                      A                      A                      A
 Frequencies --    785.8131               822.3937               855.5548
 Red. masses --     13.8748                 1.0626                 3.0548
 Frc consts  --      5.0479                 0.4234                 1.3174
 IR Inten    --    182.9066                40.7992               128.7971

                     70                     71                     72
                      A                      A                      A
 Frequencies --    874.9211               974.4282              1001.3467
 Red. masses --      1.5010                15.9680                16.8970
 Frc consts  --      0.6770                 8.9331                 9.9823
 IR Inten    --     32.6294               351.2588               243.8210

                     73                     74                     75
                      A                      A                      A
 Frequencies --   1020.7985              1023.7125              1034.8294
 Red. masses --     17.0556                16.5619                14.9622
 Frc consts  --     10.4712                10.2262                 9.4403
 IR Inten    --    295.8550               174.6635               163.9823

                     76                     77                     78
                      A                      A                      A
 Frequencies --   1100.5159              1101.8076              1144.5381
 Red. masses --      1.5400                 1.4753                12.2213
 Frc consts  --      1.0989                 1.0552                 9.4325
 IR Inten    --     57.7479               192.0767               249.8309

                     79                     80                     81
                      A                      A                      A
 Frequencies --   1169.7000              1182.6202              1195.3179
 Red. masses --     11.8609                10.9390                 7.5094
 Frc consts  --      9.5613                 9.0140                 6.3216
 IR Inten    --    272.5020               468.2877               192.3258

                     82                     83                     84
                      A                      A                      A
 Frequencies --   1214.5818              1226.7014              1235.4163
 Red. masses --      4.6353                 4.8853                 1.9051
 Frc consts  --      4.0289                 4.3313                 1.7132
 IR Inten    --    643.6830               516.5794               170.7422

                     85                     86                     87
                      A                      A                      A
 Frequencies --   1312.6157              1369.5548              1377.7127
 Red. masses --      2.1769                 1.1368                 1.1366
 Frc consts  --      2.2098                 1.2563                 1.2711
 IR Inten    --    217.3080               106.5564                51.2118

                     88                     89                     90
                      A                      A                      A
 Frequencies --   1386.1873              1408.4084              1428.0360
 Red. masses --      1.1229                 1.1408                 1.1394
 Frc consts  --      1.2712                 1.3332                 1.3690
 IR Inten    --     96.5090                27.4079                24.0995

                     91                     92                     93
                      A                      A                      A
 Frequencies --   1428.4464              1435.5054              1453.0648
 Red. masses --      1.1340                 1.1327                 1.1292
 Frc consts  --      1.3633                 1.3752                 1.4047
 IR Inten    --     73.2276                47.9220                41.4407

                     94                     95                     96
                      A                      A                      A
 Frequencies --   1460.0183              1516.0884              1529.3001
 Red. masses --      1.1254                 1.1389                 1.1368
 Frc consts  --      1.4134                 1.5424                 1.5665
 IR Inten    --     30.9963               213.1300               179.8339

                     97                     98                     99
                      A                      A                      A
 Frequencies --   1532.6274              1537.1131              1672.0534
 Red. masses --      1.1362                 1.1345                 1.0100
 Frc consts  --      1.5724                 1.5793                 1.6637
 IR Inten    --     84.8520                43.6610                17.3263

                    100                    101                    102
                      A                      A                      A
 Frequencies --   1684.1002              1687.5442              1690.0127
 Red. masses --      1.0104                 1.0142                 1.0130
 Frc consts  --      1.6884                 1.7017                 1.7047
 IR Inten    --     28.5457                24.3808                65.0092

                    103                    104                    105
                      A                      A                      A
 Frequencies --   1695.5730              1702.7828              1706.6436
 Red. masses --      1.0109                 1.0131                 1.0125
 Frc consts  --      1.7123                 1.7306                 1.7376
 IR Inten    --      1.0212                31.6445                35.6396

                    106                    107                    108
                      A                      A                      A
 Frequencies --   1722.3359              2692.4850              2738.9207
 Red. masses --      1.0095                 1.1146                 1.0927
 Frc consts  --      1.7643                 4.7609                 4.8295
 IR Inten    --      3.2907               870.3842               827.0756

                    109                    110                    111
                      A                      A                      A
 Frequencies --   2762.6901              2781.0130              2826.7936
 Red. masses --      1.0651                 1.0800                 1.0877
 Frc consts  --      4.7898                 4.9211                 5.1211
 IR Inten    --   1993.0452              1263.2225               661.8677

                    112                    113                    114
                      A                      A                      A
 Frequencies --   2857.4437              2926.6149              2979.8026
 Red. masses --      1.0607                 1.0773                 1.0757
 Frc consts  --      5.1026                 5.4366                 5.6273
 IR Inten    --   1147.4666              1109.3791               793.4854

                    115                    116                    117
                      A                      A                      A
 Frequencies --   3036.3877              3069.0666              3084.8845
 Red. masses --      1.0752                 1.0487                 1.0886
 Frc consts  --      5.8407                 5.8197                 6.1036
 IR Inten    --   1110.6106               666.4523              1337.7622

                    118                    119                    120
                      A                      A                      A
 Frequencies --   3133.0101              3242.6855              3248.0783
 Red. masses --      1.0670                 1.0792                 1.0690
 Frc consts  --      6.1710                 6.6858                 6.6448
 IR Inten    --    917.8614               673.2386               616.8211

                    121                    122                    123
                      A                      A                      A
 Frequencies --   3406.8921              3490.2659              3494.1349
 Red. masses --      1.0553                 1.0783                 1.0769
 Frc consts  --      7.2169                 7.7394                 7.7462
 IR Inten    --     42.1760                97.8074                86.8734

                    124                    125                    126
                      A                      A                      A
 Frequencies --   3504.5398              3677.7691              3678.9670
 Red. masses --      1.0870                 1.0651                 1.0652
 Frc consts  --      7.8658                 8.4882                 8.4941
 IR Inten    --     82.4880                75.9687                89.5640

 - Thermochemistry -
 -------------------
 Temperature   298.150 Kelvin.  Pressure   1.00000 Atm.
 Atom     1 has atomic number 16 and mass  31.97207

 Molecular mass:   459.97572 amu.
 Principal axes and moments of inertia in atomic units:
                           1         2         3
     Eigenvalues --  9397.42636********************
           X            1.00000   0.00220   0.00014
           Y           -0.00220   0.99704   0.07686
           Z            0.00003  -0.07686   0.99704
 This molecule is an asymmetric top.
 Rotational symmetry number  1.
 Warning -- assumption of classical behavior for rotation
           may cause significant error
 Rotational temperatures (Kelvin)      0.00922     0.00489     0.00481
 Rotational constants (GHZ):           0.19205     0.10187     0.10016
 Zero-point vibrational energy     815083.6 (Joules/Mol)
                                  194.80967 (Kcal/Mol)
 Warning -- explicit consideration of  64 degrees of freedom as
           vibrations may cause significant error
 Vibrational temperatures:     35.06    41.88    54.08    59.22    65.00
          (Kelvin)             67.45    74.86    81.24    83.63    93.92
                               99.06   104.42   115.05   124.39   139.72
                              148.80   172.97   173.38   209.36   236.32
                              240.38   252.96   263.65   282.85   301.97
                              308.17   324.26   334.07   353.70   369.79
                              399.30   405.93   422.54   474.50   513.01
                              551.36   554.86   562.77   569.99   576.93
                              594.33   604.85   610.83   613.31   628.43
                              632.31   644.91   699.18   716.39   736.19
                              748.40   757.23   767.90   776.43   783.39
                              789.04   793.21   801.10   806.52   814.35
                              819.96   825.51   832.88   843.18  1120.26
                             1122.42  1130.61  1183.24  1230.95  1258.81
                             1401.98  1440.71  1468.70  1472.89  1488.89
                             1583.39  1585.25  1646.73  1682.94  1701.52
                             1719.79  1747.51  1764.95  1777.49  1888.56
                             1970.48  1982.22  1994.41  2026.38  2054.62
                             2055.21  2065.37  2090.63  2100.64  2181.31
                             2200.32  2205.11  2211.56  2405.71  2423.04
                             2428.00  2431.55  2439.55  2449.92  2455.48
                             2478.05  3873.88  3940.69  3974.89  4001.25
                             4067.12  4111.22  4210.74  4287.27  4368.68
                             4415.70  4438.46  4507.70  4665.50  4673.25
                             4901.75  5021.71  5027.27  5042.24  5291.48
                             5293.21

 Zero-point correction=                           0.310449 (Hartree/Particle)
 Thermal correction to Energy=                    0.344252
 Thermal correction to Enthalpy=                  0.345196
 Thermal correction to Gibbs Free Energy=         0.242592
 Sum of electronic and zero-point Energies=          -3027.538423
 Sum of electronic and thermal Energies=             -3027.504620
 Sum of electronic and thermal Enthalpies=           -3027.503676
 Sum of electronic and thermal Free Energies=        -3027.606280

                     E (Thermal)             CV                S
                      KCal/Mol        Cal/Mol-Kelvin    Cal/Mol-Kelvin
 Total                  216.021            117.771            215.948
 Electronic               0.000              0.000              0.000
 Translational            0.889              2.981             44.267
 Rotational               0.889              2.981             36.349
 Vibrational            214.244            111.809            135.332
 Vibration     1          0.593              1.985              6.242
 Vibration     2          0.593              1.984              5.889
 Vibration     3          0.594              1.982              5.383
 Vibration     4          0.594              1.981              5.202
 Vibration     5          0.595              1.979              5.018
 Vibration     6          0.595              1.979              4.945
 Vibration     7          0.596              1.977              4.739
 Vibration     8          0.596              1.975              4.577
 Vibration     9          0.596              1.974              4.520
 Vibration    10          0.597              1.971              4.291
 Vibration    11          0.598              1.969              4.186
 Vibration    12          0.599              1.967              4.082
 Vibration    13          0.600              1.963              3.892
 Vibration    14          0.601              1.959              3.739
 Vibration    15          0.603              1.951              3.511
 Vibration    16          0.605              1.946              3.389
 Vibration    17          0.609              1.932              3.097
 Vibration    18          0.609              1.932              3.092
 Vibration    19          0.617              1.908              2.730
 Vibration    20          0.623              1.886              2.500
 Vibration    21          0.624              1.883              2.468
 Vibration    22          0.628              1.872              2.372
 Vibration    23          0.631              1.863              2.295
 Vibration    24          0.636              1.845              2.165
 Vibration    25          0.642              1.826              2.045
 Vibration    26          0.644              1.819              2.008
 Vibration    27          0.650              1.802              1.916
 Vibration    28          0.653              1.792              1.862
 Vibration    29          0.660              1.770              1.760
 Vibration    30          0.667              1.751              1.682
 Vibration    31          0.679              1.715              1.549
 Vibration    32          0.681              1.707              1.521
 Vibration    33          0.688              1.686              1.453
 Vibration    34          0.713              1.616              1.261
 Vibration    35          0.732              1.562              1.137
 Vibration    36          0.752              1.506              1.026
 Vibration    37          0.754              1.501              1.017
 Vibration    38          0.759              1.489              0.996
 Vibration    39          0.763              1.478              0.977
 Vibration    40          0.767              1.468              0.959
 Vibration    41          0.777              1.442              0.916
 Vibration    42          0.783              1.426              0.891
 Vibration    43          0.787              1.417              0.877
 Vibration    44          0.788              1.413              0.871
 Vibration    45          0.797              1.390              0.837
 Vibration    46          0.800              1.384              0.828
 Vibration    47          0.807              1.365              0.801
 Vibration    48          0.842              1.281              0.694
 Vibration    49          0.853              1.255              0.663
 Vibration    50          0.867              1.224              0.630
 Vibration    51          0.875              1.205              0.610
 Vibration    52          0.881              1.192              0.596
 Vibration    53          0.889              1.175              0.579
 Vibration    54          0.895              1.162              0.566
 Vibration    55          0.900              1.152              0.556
 Vibration    56          0.904              1.143              0.547
 Vibration    57          0.907              1.137              0.541
 Vibration    58          0.912              1.125              0.530
 Vibration    59          0.916              1.117              0.523
 Vibration    60          0.922              1.105              0.512
 Vibration    61          0.926              1.096              0.504
 Vibration    62          0.930              1.088              0.497
 Vibration    63          0.935              1.077              0.487
 Vibration    64          0.943              1.062              0.474

 Normal termination of Gaussian 09 at Sun Mar 13 18:47:44 2016.
