 Gaussian 09, Revision D.01,
 Gaussian 09:  EM64L-G09RevD.01 24-Apr-2013

 ------------------------------------------
 # pw91pw91/6-311++G(3df,3pd)/auto opt freq
 ------------------------------------------

 -------------------
 Title Card Required
 -------------------
 Symbolic Z-matrix:
 Charge =  0 Multiplicity = 1

 SCF Done:  E(RPW91-PW91) =  -3084.42772206     A.U. after   15 cycles
 SCF Done:  E(RPW91-PW91) =  -3084.42730953     A.U. after   12 cycles
 SCF Done:  E(RPW91-PW91) =  -3084.42830598     A.U. after   10 cycles
 SCF Done:  E(RPW91-PW91) =  -3084.42890018     A.U. after   12 cycles
 SCF Done:  E(RPW91-PW91) =  -3084.42936750     A.U. after   13 cycles
 SCF Done:  E(RPW91-PW91) =  -3084.42972963     A.U. after   12 cycles
 SCF Done:  E(RPW91-PW91) =  -3084.42945721     A.U. after   12 cycles
 SCF Done:  E(RPW91-PW91) =  -3084.42985314     A.U. after   12 cycles
 SCF Done:  E(RPW91-PW91) =  -3084.42988893     A.U. after   12 cycles
 SCF Done:  E(RPW91-PW91) =  -3084.43000425     A.U. after   11 cycles
 SCF Done:  E(RPW91-PW91) =  -3084.43028257     A.U. after    7 cycles
 SCF Done:  E(RPW91-PW91) =  -3084.43028289     A.U. after    7 cycles
 SCF Done:  E(RPW91-PW91) =  -3084.43028312     A.U. after    7 cycles
 SCF Done:  E(RPW91-PW91) =  -3084.43028333     A.U. after    7 cycles
 SCF Done:  E(RPW91-PW91) =  -3084.43028350     A.U. after    7 cycles
 SCF Done:  E(RPW91-PW91) =  -3084.43028360     A.U. after    6 cycles
 SCF Done:  E(RPW91-PW91) =  -3084.43028371     A.U. after    6 cycles
 SCF Done:  E(RPW91-PW91) =  -3084.43028385     A.U. after    6 cycles
 SCF Done:  E(RPW91-PW91) =  -3084.43028401     A.U. after    6 cycles
 Optimization completed.
    -- Stationary point found.
 Normal termination of Gaussian 09 at Sun Mar 13 17:17:11 2016.

 ----------------------------------------------------------------------
 #N Geom=AllCheck Guess=TCheck SCRF=Check GenChk RPW91PW91/6-311++G(3df
 ,3pd)/Auto Freq
 ----------------------------------------------------------------------

 Structure from the checkpoint file:  "/home/user/Documents/Gau-9245.chk"
 -------------------
 Title Card Required
 -------------------
 Charge =  0 Multiplicity = 1

                         Standard orientation:
 ---------------------------------------------------------------------
 Center     Atomic      Atomic             Coordinates (Angstroms)
 Number     Number       Type             X           Y           Z
 ---------------------------------------------------------------------
      1         16           0        2.690194   -1.243323   -1.142558
      2          8           0        3.712887   -1.004601   -2.164633
      3          8           0        2.050110   -2.581775   -1.238189
      4          8           0        3.305912   -1.061194    0.244397
      5          8           0        1.584807   -0.186496   -1.269095
      6          1           0        1.247967    1.009023   -0.429396
      7          1           0        5.669913    1.302212   -0.241180
      8         16           0        1.771309    2.730238    0.897059
      9          8           0        0.781546    1.800601    0.050138
     10          8           0        2.923113    3.061787    0.033270
     11          8           0        0.914256    3.899362    1.187841
     12          8           0        2.162369    1.977721    2.100606
     13          1           0        1.226790   -3.125292   -0.088042
     14         16           0       -3.669063    1.148688   -0.651427
     15          8           0       -4.879274    2.115357   -1.161152
     16          8           0       -2.624228    1.229191   -1.687375
     17          8           0       -3.294331    1.778003    0.624128
     18          8           0       -4.249727   -0.196054   -0.505499
     19          1           0       -5.228653    1.740534   -1.990424
     20          1           0        1.620546    0.332548    2.336620
     21          1           0       -2.083688    2.996692    0.354163
     22          7           0        1.555020   -0.707616    2.231350
     23          1           0        1.776171   -1.181141    3.106997
     24          1           0        2.270081   -0.963146    1.476785
     25          1           0        4.062823    1.925500   -0.309632
     26         16           0       -0.812246   -3.065510    0.700005
     27          8           0       -0.820414   -1.598464    1.128043
     28          8           0       -1.521978   -3.884702    1.668200
     29          8           0       -1.310363   -3.167478   -0.685421
     30          8           0        0.697953   -3.497595    0.731309
     31          1           0       -3.595502   -2.412764    1.881148
     32          1           0        0.608592   -1.011402    1.889355
     33          7           0       -3.373631   -1.417404    1.778642
     34          1           0       -3.838111   -0.998776    0.929372
     35          1           0       -2.302758   -1.374938    1.610907
     36          1           0       -3.646589   -0.901410    2.615449
     37          7           0       -0.812729   -0.985806   -2.206258
     38          1           0       -1.059899   -1.850403   -1.641232
     39          1           0       -1.504448   -0.230991   -2.034054
     40          1           0        0.157687   -0.671517   -1.892903
     41          7           0        4.704649    1.096594   -0.496175
     42          1           0        4.635748    0.778843   -1.476676
     43          1           0       -0.791912   -1.220326   -3.199112
     44          1           0        4.310379    0.256589    0.031310
     45          7           0       -1.391498    3.653061   -0.089743
     46          1           0       -0.491220    3.778617    0.493679
     47          1           0       -1.836644    4.552397   -0.276904
     48          1           0       -1.124185    3.206537   -0.972741
 ---------------------------------------------------------------------

 SCF Done:  E(RPW91-PW91) =  -3084.43028401     A.U. after    1 cycles

 The electronic state is 1-A.
 Alpha  occ. eigenvalues --  -88.29567 -88.27331 -88.26862 -88.25482 -18.81970
 Alpha  occ. eigenvalues --  -18.77937 -18.77551 -18.77273 -18.77213 -18.77076
 Alpha  occ. eigenvalues --  -18.75350 -18.74979 -18.74842 -18.74536 -18.74315
 Alpha  occ. eigenvalues --  -18.74046 -18.73989 -18.73710 -18.73320 -18.72295
 Alpha  occ. eigenvalues --  -14.08963 -14.08865 -14.07453 -14.05902 -14.05716
 Alpha  occ. eigenvalues --   -7.86493  -7.84196  -7.83757  -7.82316  -5.89167
 Alpha  occ. eigenvalues --   -5.88917  -5.88897  -5.86868  -5.86630  -5.86611
 Alpha  occ. eigenvalues --   -5.86382  -5.86255  -5.86145  -5.84897  -5.84849
 Alpha  occ. eigenvalues --   -5.84733  -1.08383  -1.05862  -1.05534  -1.03746
 Alpha  occ. eigenvalues --   -0.96438  -0.93600  -0.93240  -0.92844  -0.92726
 Alpha  occ. eigenvalues --   -0.91549  -0.90860  -0.90774  -0.90488  -0.89650
 Alpha  occ. eigenvalues --   -0.89380  -0.89168  -0.88720  -0.88640  -0.87836
 Alpha  occ. eigenvalues --   -0.86638  -0.86394  -0.60036  -0.57941  -0.57215
 Alpha  occ. eigenvalues --   -0.53848  -0.52779  -0.52612  -0.52530  -0.52372
 Alpha  occ. eigenvalues --   -0.51811  -0.51230  -0.50690  -0.50536  -0.50494
 Alpha  occ. eigenvalues --   -0.50169  -0.50145  -0.49721  -0.48822  -0.48643
 Alpha  occ. eigenvalues --   -0.48486  -0.46771  -0.46207  -0.45827  -0.44992
 Alpha  occ. eigenvalues --   -0.44238  -0.42898  -0.42656  -0.42016  -0.41704
 Alpha  occ. eigenvalues --   -0.41493  -0.41128  -0.40686  -0.40203  -0.37100
 Alpha  occ. eigenvalues --   -0.36358  -0.34926  -0.33641  -0.33558  -0.33137
 Alpha  occ. eigenvalues --   -0.32610  -0.32035  -0.31463  -0.31249  -0.30990
 Alpha  occ. eigenvalues --   -0.30836  -0.30613  -0.30336  -0.30183  -0.30011
 Alpha  occ. eigenvalues --   -0.29313  -0.29037  -0.28811  -0.28591  -0.27357
 Alpha  occ. eigenvalues --   -0.26801  -0.26187  -0.25647  -0.24901  -0.24785
 Alpha  occ. eigenvalues --   -0.23601  -0.23322  -0.23140  -0.22700  -0.22032
 Alpha virt. eigenvalues --   -0.06159  -0.04752  -0.04163  -0.03459  -0.02613
 Alpha virt. eigenvalues --   -0.02297  -0.00285   0.00082   0.00833   0.01137
 Alpha virt. eigenvalues --    0.01460   0.01749   0.02200   0.02757   0.02866

 Mulliken charges:
               1
     1  S    0.471689
     2  O   -0.542597
     3  O   -0.553431
     4  O   -0.765835
     5  O   -0.799875
     6  H    1.044800
     7  H    0.334623
     8  S    0.332915
     9  O   -0.813264
    10  O   -0.525669
    11  O   -0.545058
    12  O   -0.435885
    13  H    0.936924
    14  S    0.483136
    15  O   -0.653884
    16  O   -0.391727
    17  O   -0.484057
    18  O   -0.521347
    19  H    0.517250
    20  H    0.550135
    21  H    0.638819
    22  N   -1.196292
    23  H    0.328252
    24  H    0.684383
    25  H    0.608243
    26  S    0.385779
    27  O   -0.736418
    28  O   -0.447532
    29  O   -0.481330
    30  O   -0.643221
    31  H    0.436082
    32  H    0.656559
    33  N   -1.187648
    34  H    0.629363
    35  H    0.819026
    36  H    0.391466
    37  N   -1.027674
    38  H    0.587962
    39  H    0.501099
    40  H    0.670885
    41  N   -1.041835
    42  H    0.475074
    43  H    0.342155
    44  H    0.613298
    45  N   -1.185087
    46  H    0.631025
    47  H    0.346090
    48  H    0.562635
 Sum of Mulliken charges =   0.00000

 Dipole moment (field-independent basis, Debye):
    X=             -3.9090    Y=              6.0649    Z=              0.9450  Tot=              7.2771
 Quadrupole moment (field-independent basis, Debye-Ang):
   XX=           -148.2285   YY=           -207.7779   ZZ=           -162.8060
   XY=              1.0502   XZ=              5.1951   YZ=            -16.7230

  Exact polarizability: 252.269   3.103 233.037  -5.818  -2.489 205.355
 Approx polarizability: 381.354   6.745 372.985  -8.850  -3.577 371.245

                      1                      2                      3
                      A                      A                      A
 Frequencies --     15.3038                27.6249                33.9898
 Red. masses --     11.3555                 9.4645                 8.9256
 Frc consts  --      0.0016                 0.0043                 0.0061
 IR Inten    --      0.6331                 2.3911                 2.5680

                      4                      5                      6
                      A                      A                      A
 Frequencies --     39.9993                41.6417                46.7252
 Red. masses --      6.3791                 8.8266                 8.0283
 Frc consts  --      0.0060                 0.0090                 0.0103
 IR Inten    --      2.3441                 0.6130                 3.3851

                      7                      8                      9
                      A                      A                      A
 Frequencies --     50.4465                56.7297                58.1255
 Red. masses --      8.0834                 7.4844                 6.8801
 Frc consts  --      0.0121                 0.0142                 0.0137
 IR Inten    --      2.3257                 0.8233                 3.7214

                     10                     11                     12
                      A                      A                      A
 Frequencies --     60.9268                65.5139                74.8362
 Red. masses --      8.5267                 5.7977                 6.2480
 Frc consts  --      0.0186                 0.0147                 0.0206
 IR Inten    --      2.2410                12.7429                 2.0165

                     13                     14                     15
                      A                      A                      A
 Frequencies --     79.7068                82.5569                88.3281
 Red. masses --      8.0462                 3.9477                 5.4087
 Frc consts  --      0.0301                 0.0159                 0.0249
 IR Inten    --      2.8282                 8.7836                 2.2628

                     16                     17                     18
                      A                      A                      A
 Frequencies --     90.0847                94.5634               100.1463
 Red. masses --      5.3379                 4.5554                 5.6407
 Frc consts  --      0.0255                 0.0240                 0.0333
 IR Inten    --      1.6279                 7.3808                 5.5726

                     19                     20                     21
                      A                      A                      A
 Frequencies --    120.6221               149.9187               170.4548
 Red. masses --      6.4506                 3.9284                 4.8330
 Frc consts  --      0.0553                 0.0520                 0.0827
 IR Inten    --      7.3400                15.2359                 8.8897

                     22                     23                     24
                      A                      A                      A
 Frequencies --    182.4491               183.5946               191.0707
 Red. masses --      2.7741                 3.7885                 4.3056
 Frc consts  --      0.0544                 0.0752                 0.0926
 IR Inten    --     15.4743                 4.9589                10.2274

                     25                     26                     27
                      A                      A                      A
 Frequencies --    210.0664               211.8473               224.4661
 Red. masses --      1.8809                 3.4899                 3.7183
 Frc consts  --      0.0489                 0.0923                 0.1104
 IR Inten    --     82.4379                12.4648                26.6930

                     28                     29                     30
                      A                      A                      A
 Frequencies --    232.9142               250.2681               257.8791
 Red. masses --      4.0918                 3.6051                 3.1843
 Frc consts  --      0.1308                 0.1330                 0.1248
 IR Inten    --     33.1431                95.1262                33.7628

                     31                     32                     33
                      A                      A                      A
 Frequencies --    263.9066               273.1801               278.2269
 Red. masses --      1.7690                 4.5887                 4.7359
 Frc consts  --      0.0726                 0.2018                 0.2160
 IR Inten    --     18.9246               140.3031                50.4045

                     34                     35                     36
                      A                      A                      A
 Frequencies --    285.1881               298.0564               309.6517
 Red. masses --      4.0178                 4.4330                 1.2003
 Frc consts  --      0.1925                 0.2320                 0.0678
 IR Inten    --     93.8359               289.1335                29.4012

                     37                     38                     39
                      A                      A                      A
 Frequencies --    336.3804               379.0349               382.3410
 Red. masses --      1.3620                 4.0174                 3.1179
 Frc consts  --      0.0908                 0.3401                 0.2685
 IR Inten    --     24.4256                 2.8924                16.0761

                     40                     41                     42
                      A                      A                      A
 Frequencies --    391.5731               399.0972               403.6429
 Red. masses --      1.7201                 2.2174                 1.5932
 Frc consts  --      0.1554                 0.2081                 0.1529
 IR Inten    --      6.7763                14.0443                19.0117

                     43                     44                     45
                      A                      A                      A
 Frequencies --    414.2330               417.6162               422.6211
 Red. masses --      2.3257                 1.6234                 2.7972
 Frc consts  --      0.2351                 0.1668                 0.2944
 IR Inten    --     10.2556                15.0444                64.5474

                     46                     47                     48
                      A                      A                      A
 Frequencies --    428.7763               431.1507               433.8837
 Red. masses --      1.1769                 2.1830                 2.3648
 Frc consts  --      0.1275                 0.2391                 0.2623
 IR Inten    --     12.4401                17.8887                 8.2427

                     49                     50                     51
                      A                      A                      A
 Frequencies --    436.6849               449.9120               458.1072
 Red. masses --      1.4535                 1.4740                 2.2894
 Frc consts  --      0.1633                 0.1758                 0.2831
 IR Inten    --      9.9579                 5.6490                10.9195

                     52                     53                     54
                      A                      A                      A
 Frequencies --    463.0729               475.1932               502.5519
 Red. masses --      4.5215                 1.1310                 1.1959
 Frc consts  --      0.5713                 0.1505                 0.1779
 IR Inten    --     20.2348                 2.3824                25.0553

                     55                     56                     57
                      A                      A                      A
 Frequencies --    511.9419               538.7582               541.9160
 Red. masses --      1.3033                 8.7074                 8.4436
 Frc consts  --      0.2013                 1.4891                 1.4610
 IR Inten    --      7.9305                12.3920                36.7326

                     58                     59                     60
                      A                      A                      A
 Frequencies --    548.3339               549.9048               555.7160
 Red. masses --      8.0065                 6.5103                 3.1766
 Frc consts  --      1.4183                 1.1599                 0.5780
 IR Inten    --     14.2236                37.5860                86.0141

                     61                     62                     63
                      A                      A                      A
 Frequencies --    565.0181               566.0024               571.3055
 Red. masses --      8.8346                 7.9777                 7.1035
 Frc consts  --      1.6617                 1.5058                 1.3660
 IR Inten    --     14.5993                96.2254                12.1476

                     64                     65                     66
                      A                      A                      A
 Frequencies --    574.1152               578.7579               590.0023
 Red. masses --      6.7411                10.6719                 5.4934
 Frc consts  --      1.3091                 2.1061                 1.1267
 IR Inten    --     32.3511                67.4288                13.8596

                     67                     68                     69
                      A                      A                      A
 Frequencies --    591.8193               616.0266               625.4208
 Red. masses --      2.6232                 1.4564                 2.0720
 Frc consts  --      0.5413                 0.3256                 0.4775
 IR Inten    --     68.2126                25.8396                39.5867

                     70                     71                     72
                      A                      A                      A
 Frequencies --    761.3380               811.0350               860.2494
 Red. masses --     17.1966                15.2593                15.2543
 Frc consts  --      5.8728                 5.9138                 6.6511
 IR Inten    --    232.1923               226.5869                69.5470

                     73                     74                     75
                      A                      A                      A
 Frequencies --    902.3167               904.4221               916.7572
 Red. masses --      2.5990                 1.6543                10.1616
 Frc consts  --      1.2468                 0.7973                 5.0318
 IR Inten    --     79.6084                10.6396               135.3328

                     76                     77                     78
                      A                      A                      A
 Frequencies --    929.8661              1003.7770              1008.3527
 Red. masses --     10.5274                 1.6607                 2.6858
 Frc consts  --      5.3630                 0.9859                 1.6090
 IR Inten    --    442.9835                55.2504               282.6348

                     79                     80                     81
                      A                      A                      A
 Frequencies --   1013.9437              1056.5243              1092.4265
 Red. masses --     17.0897                14.1747                10.9145
 Frc consts  --     10.3517                 9.3223                 7.6743
 IR Inten    --    156.6489               572.4797               116.6422

                     82                     83                     84
                      A                      A                      A
 Frequencies --   1097.5847              1150.7371              1169.7839
 Red. masses --      1.5257                10.8935                14.3092
 Frc consts  --      1.0829                 8.4990                11.5366
 IR Inten    --    186.8999               418.6483               265.0344

                     85                     86                     87
                      A                      A                      A
 Frequencies --   1183.1489              1190.3711              1214.5857
 Red. masses --     14.7113                11.3000                 4.3154
 Frc consts  --     12.1333                 9.4340                 3.7508
 IR Inten    --    129.2676               975.6854               396.4918

                     88                     89                     90
                      A                      A                      A
 Frequencies --   1226.0125              1324.2681              1336.1685
 Red. masses --      5.0576                 1.1442                 1.1370
 Frc consts  --      4.4790                 1.1823                 1.1960
 IR Inten    --    280.0946                46.2870                64.7361

                     91                     92                     93
                      A                      A                      A
 Frequencies --   1339.3071              1344.8722              1369.5912
 Red. masses --      1.2006                 1.1652                 1.1375
 Frc consts  --      1.2688                 1.2416                 1.2571
 IR Inten    --     94.5998                84.1354                15.0853

                     94                     95                     96
                      A                      A                      A
 Frequencies --   1398.7564              1400.9807              1422.2615
 Red. masses --      1.1356                 1.1425                 1.1404
 Frc consts  --      1.3090                 1.3212                 1.3592
 IR Inten    --     16.2137               122.7703                51.5620

                     97                     98                     99
                      A                      A                      A
 Frequencies --   1439.9499              1457.8327              1464.7639
 Red. masses --      1.1328                 1.1374                 1.1285
 Frc consts  --      1.3838                 1.4242                 1.4266
 IR Inten    --     46.1507                93.2795                53.2633

                    100                    101                    102
                      A                      A                      A
 Frequencies --   1468.1592              1522.7264              1532.3012
 Red. masses --      1.1279                 1.1298                 1.1287
 Frc consts  --      1.4324                 1.5435                 1.5614
 IR Inten    --     75.3927               130.6050                77.3195

                    103                    104                    105
                      A                      A                      A
 Frequencies --   1536.0990              1541.2469              1545.3353
 Red. masses --      1.1364                 1.1291                 1.1308
 Frc consts  --      1.5798                 1.5802                 1.5910
 IR Inten    --    226.7299               113.4335               106.0715

                    106                    107                    108
                      A                      A                      A
 Frequencies --   1659.9523              1664.6588              1672.3782
 Red. masses --      1.0142                 1.0092                 1.0108
 Frc consts  --      1.6466                 1.6476                 1.6657
 IR Inten    --     88.3419                27.9500                20.2151

                    109                    110                    111
                      A                      A                      A
 Frequencies --   1681.3004              1687.5451              1689.7222
 Red. masses --      1.0127                 1.0119                 1.0128
 Frc consts  --      1.6867                 1.6978                 1.7038
 IR Inten    --     14.2544                39.2068                47.4135

                    112                    113                    114
                      A                      A                      A
 Frequencies --   1693.9620              1696.1682              1712.3016
 Red. masses --      1.0109                 1.0095                 1.0106
 Frc consts  --      1.7090                 1.7111                 1.7459
 IR Inten    --     16.6265                58.6430                14.5829

                    115                    116                    117
                      A                      A                      A
 Frequencies --   1714.9917              2435.3713              2480.1778
 Red. masses --      1.0112                 1.1027                 1.0973
 Frc consts  --      1.7523                 3.8533                 3.9767
 IR Inten    --     15.5944              2196.5313               591.7815

                    118                    119                    120
                      A                      A                      A
 Frequencies --   2510.3245              2549.1722              2635.3182
 Red. masses --      1.0956                 1.0970                 1.1015
 Frc consts  --      4.0680                 4.2001                 4.5073
 IR Inten    --   1812.4070              1929.2957               695.1282

                    121                    122                    123
                      A                      A                      A
 Frequencies --   2704.2911              2781.0533              2787.8356
 Red. masses --      1.1096                 1.0924                 1.0527
 Frc consts  --      4.7811                 4.9780                 4.8204
 IR Inten    --   1404.5814              2428.9584               822.4396

                    124                    125                    126
                      A                      A                      A
 Frequencies --   2811.3877              2915.0652              2961.5640
 Red. masses --      1.0594                 1.0687                 1.0724
 Frc consts  --      4.9336                 5.3508                 5.5417
 IR Inten    --   1127.4582              1254.3081                 6.7815

                    127                    128                    129
                      A                      A                      A
 Frequencies --   2967.2626              3032.6539              3175.4297
 Red. masses --      1.0673                 1.0735                 1.0704
 Frc consts  --      5.5364                 5.8171                 6.3594
 IR Inten    --   1650.2245              1244.8121               790.3239

                    130                    131                    132
                      A                      A                      A
 Frequencies --   3298.7024              3412.9768              3414.0339
 Red. masses --      1.0623                 1.0569                 1.0549
 Frc consts  --      6.8104                 7.2534                 7.2442
 IR Inten    --    162.3007                81.0592                27.5303

                    133                    134                    135
                      A                      A                      A
 Frequencies --   3489.1296              3494.7673              3500.5390
 Red. masses --      1.0759                 1.0756                 1.0874
 Frc consts  --      7.7172                 7.7400                 7.8507
 IR Inten    --     66.7699                61.7814                65.2746

                    136                    137                    138
                      A                      A                      A
 Frequencies --   3504.0990              3506.6201              3676.5197
 Red. masses --      1.0803                 1.0878                 1.0652
 Frc consts  --      7.8152                 7.8808                 8.4827
 IR Inten    --     78.7204                63.2139                81.1163

 - Thermochemistry -
 -------------------
 Temperature   298.150 Kelvin.  Pressure   1.00000 Atm.
 Atom     1 has atomic number 16 and mass  31.97207

 Molecular mass:   477.00227 amu.
 Principal axes and moments of inertia in atomic units:
                           1         2         3
     Eigenvalues --  ******************************
           X            0.99998   0.00666  -0.00066
           Y           -0.00667   0.99994  -0.00861
           Z            0.00060   0.00862   0.99996
 This molecule is an asymmetric top.
 Rotational symmetry number  1.
 Warning -- assumption of classical behavior for rotation
           may cause significant error
 Rotational temperatures (Kelvin)      0.00774     0.00605     0.00426
 Rotational constants (GHZ):           0.16125     0.12597     0.08869
 Zero-point vibrational energy     910400.3 (Joules/Mol)
                                  217.59090 (Kcal/Mol)
 Warning -- explicit consideration of  68 degrees of freedom as
           vibrations may cause significant error
 Vibrational temperatures:     22.02    39.75    48.90    57.55    59.91
          (Kelvin)             67.23    72.58    81.62    83.63    87.66
                               94.26   107.67   114.68   118.78   127.08
                              129.61   136.06   144.09   173.55   215.70
                              245.25   262.50   264.15   274.91   302.24
                              304.80   322.96   335.11   360.08   371.03
                              379.70   393.04   400.31   410.32   428.84
                              445.52   483.98   545.35   550.10   563.39
                              574.21   580.75   595.99   600.86   608.06
                              616.91   620.33   624.26   628.29   647.32
                              659.11   666.26   683.70   723.06   736.57
                              775.15   779.70   788.93   791.19   799.55
                              812.93   814.35   821.98   826.02   832.70
                              848.88   851.49   886.32   899.84  1095.39
                             1166.90  1237.71  1298.23  1301.26  1319.01
                             1337.87  1444.21  1450.79  1458.84  1520.10
                             1571.76  1579.18  1655.65  1683.06  1702.29
                             1712.68  1747.52  1763.96  1905.32  1922.45
                             1926.96  1934.97  1970.53  2012.50  2015.70
                             2046.31  2071.76  2097.49  2107.47  2112.35
                             2190.86  2204.64  2210.10  2217.51  2223.39
                             2388.30  2395.07  2406.18  2419.01  2428.00
                             2431.13  2437.23  2440.40  2463.62  2467.49
                             3503.95  3568.42  3611.79  3667.69  3791.63
                             3890.87  4001.31  4011.07  4044.95  4194.12
                             4261.02  4269.22  4363.31  4568.73  4746.09
                             4910.51  4912.03  5020.07  5028.18  5036.49
                             5041.61  5045.24  5289.69

 Zero-point correction=                           0.346753 (Hartree/Particle)
 Thermal correction to Energy=                    0.382371
 Thermal correction to Enthalpy=                  0.383315
 Thermal correction to Gibbs Free Energy=         0.276493
 Sum of electronic and zero-point Energies=          -3084.083531
 Sum of electronic and thermal Energies=             -3084.047913
 Sum of electronic and thermal Enthalpies=           -3084.046969
 Sum of electronic and thermal Free Energies=        -3084.153791

                     E (Thermal)             CV                S
                      KCal/Mol        Cal/Mol-Kelvin    Cal/Mol-Kelvin
 Total                  239.941            124.842            224.825
 Electronic               0.000              0.000              0.000
 Translational            0.889              2.981             44.375
 Rotational               0.889              2.981             36.432
 Vibrational            238.164            118.880            144.018
 Vibration     1          0.593              1.986              7.166
 Vibration     2          0.593              1.984              5.993
 Vibration     3          0.594              1.983              5.582
 Vibration     4          0.594              1.981              5.259
 Vibration     5          0.594              1.981              5.179
 Vibration     6          0.595              1.979              4.951
 Vibration     7          0.595              1.977              4.800
 Vibration     8          0.596              1.975              4.568
 Vibration     9          0.596              1.974              4.520
 Vibration    10          0.597              1.973              4.427
 Vibration    11          0.597              1.971              4.284
 Vibration    12          0.599              1.966              4.022
 Vibration    13          0.600              1.963              3.898
 Vibration    14          0.600              1.961              3.829
 Vibration    15          0.601              1.957              3.697
 Vibration    16          0.602              1.956              3.658
 Vibration    17          0.603              1.953              3.563
 Vibration    18          0.604              1.949              3.451
 Vibration    19          0.609              1.932              3.090
 Vibration    20          0.618              1.903              2.673
 Vibration    21          0.626              1.879              2.430
 Vibration    22          0.630              1.864              2.303
 Vibration    23          0.631              1.862              2.292
 Vibration    24          0.634              1.852              2.217
 Vibration    25          0.642              1.825              2.043
 Vibration    26          0.643              1.823              2.028
 Vibration    27          0.649              1.804              1.923
 Vibration    28          0.654              1.791              1.856
 Vibration    29          0.663              1.762              1.729
 Vibration    30          0.667              1.749              1.676
 Vibration    31          0.670              1.739              1.636
 Vibration    32          0.676              1.723              1.576
 Vibration    33          0.679              1.714              1.545
 Vibration    34          0.683              1.701              1.502
 Vibration    35          0.691              1.677              1.428
 Vibration    36          0.699              1.655              1.364
 Vibration    37          0.717              1.603              1.229
 Vibration    38          0.749              1.515              1.043
 Vibration    39          0.752              1.508              1.030
 Vibration    40          0.759              1.488              0.994
 Vibration    41          0.765              1.472              0.966
 Vibration    42          0.769              1.462              0.949
 Vibration    43          0.778              1.439              0.912
 Vibration    44          0.781              1.432              0.900
 Vibration    45          0.785              1.421              0.883
 Vibration    46          0.790              1.408              0.863
 Vibration    47          0.792              1.402              0.855
 Vibration    48          0.795              1.396              0.846
 Vibration    49          0.797              1.390              0.837
 Vibration    50          0.809              1.361              0.796
 Vibration    51          0.816              1.343              0.772
 Vibration    52          0.821              1.332              0.757
 Vibration    53          0.832              1.305              0.723
 Vibration    54          0.858              1.244              0.652
 Vibration    55          0.867              1.224              0.629
 Vibration    56          0.894              1.164              0.568
 Vibration    57          0.897              1.157              0.561
 Vibration    58          0.904              1.143              0.548
 Vibration    59          0.905              1.140              0.544
 Vibration    60          0.911              1.127              0.532
 Vibration    61          0.921              1.107              0.514
 Vibration    62          0.922              1.105              0.512
 Vibration    63          0.927              1.093              0.502
 Vibration    64          0.930              1.087              0.496
 Vibration    65          0.935              1.077              0.488
 Vibration    66          0.947              1.053              0.467
 Vibration    67          0.949              1.049              0.464
 Vibration    68          0.976              0.998              0.423

 Normal termination of Gaussian 09 at Sun Mar 13 23:17:25 2016.
